<?xml version="1.0"?>
<VTKFile type="StructuredGrid" version="0.1" byte_order="LittleEndian">
<StructuredGrid WholeExtent="0 128 0 128 0 0">
<Piece Extent="0 128 0 128 0 0">
<Points>
<DataArray type="Float64" NumberOfComponents="3" format="ascii">
0 0 0.0
0.0078125 0 0.0
0.015625 0 0.0
0.0234375 0 0.0
0.03125 0 0.0
0.0390625 0 0.0
0.046875 0 0.0
0.0546875 0 0.0
0.0625 0 0.0
0.0703125 0 0.0
0.078125 0 0.0
0.0859375 0 0.0
0.09375 0 0.0
0.101562 0 0.0
0.109375 0 0.0
0.117188 0 0.0
0.125 0 0.0
0.132812 0 0.0
0.140625 0 0.0
0.148438 0 0.0
0.15625 0 0.0
0.164062 0 0.0
0.171875 0 0.0
0.179688 0 0.0
0.1875 0 0.0
0.195312 0 0.0
0.203125 0 0.0
0.210938 0 0.0
0.21875 0 0.0
0.226562 0 0.0
0.234375 0 0.0
0.242188 0 0.0
0.25 0 0.0
0.257812 0 0.0
0.265625 0 0.0
0.273438 0 0.0
0.28125 0 0.0
0.289062 0 0.0
0.296875 0 0.0
0.304688 0 0.0
0.3125 0 0.0
0.320312 0 0.0
0.328125 0 0.0
0.335938 0 0.0
0.34375 0 0.0
0.351562 0 0.0
0.359375 0 0.0
0.367188 0 0.0
0.375 0 0.0
0.382812 0 0.0
0.390625 0 0.0
0.398438 0 0.0
0.40625 0 0.0
0.414062 0 0.0
0.421875 0 0.0
0.429688 0 0.0
0.4375 0 0.0
0.445312 0 0.0
0.453125 0 0.0
0.460938 0 0.0
0.46875 0 0.0
0.476562 0 0.0
0.484375 0 0.0
0.492188 0 0.0
0.5 0 0.0
0.507812 0 0.0
0.515625 0 0.0
0.523438 0 0.0
0.53125 0 0.0
0.539062 0 0.0
0.546875 0 0.0
0.554688 0 0.0
0.5625 0 0.0
0.570312 0 0.0
0.578125 0 0.0
0.585938 0 0.0
0.59375 0 0.0
0.601562 0 0.0
0.609375 0 0.0
0.617188 0 0.0
0.625 0 0.0
0.632812 0 0.0
0.640625 0 0.0
0.648438 0 0.0
0.65625 0 0.0
0.664062 0 0.0
0.671875 0 0.0
0.679688 0 0.0
0.6875 0 0.0
0.695312 0 0.0
0.703125 0 0.0
0.710938 0 0.0
0.71875 0 0.0
0.726562 0 0.0
0.734375 0 0.0
0.742188 0 0.0
0.75 0 0.0
0.757812 0 0.0
0.765625 0 0.0
0.773438 0 0.0
0.78125 0 0.0
0.789062 0 0.0
0.796875 0 0.0
0.804688 0 0.0
0.8125 0 0.0
0.820312 0 0.0
0.828125 0 0.0
0.835938 0 0.0
0.84375 0 0.0
0.851562 0 0.0
0.859375 0 0.0
0.867188 0 0.0
0.875 0 0.0
0.882812 0 0.0
0.890625 0 0.0
0.898438 0 0.0
0.90625 0 0.0
0.914062 0 0.0
0.921875 0 0.0
0.929688 0 0.0
0.9375 0 0.0
0.945312 0 0.0
0.953125 0 0.0
0.960938 0 0.0
0.96875 0 0.0
0.976562 0 0.0
0.984375 0 0.0
0.992188 0 0.0
1 0 0.0
0 0.0078125 0.0
0.0078125 0.0078125 0.0
0.015625 0.0078125 0.0
0.0234375 0.0078125 0.0
0.03125 0.0078125 0.0
0.0390625 0.0078125 0.0
0.046875 0.0078125 0.0
0.0546875 0.0078125 0.0
0.0625 0.0078125 0.0
0.0703125 0.0078125 0.0
0.078125 0.0078125 0.0
0.0859375 0.0078125 0.0
0.09375 0.0078125 0.0
0.101562 0.0078125 0.0
0.109375 0.0078125 0.0
0.117188 0.0078125 0.0
0.125 0.0078125 0.0
0.132812 0.0078125 0.0
0.140625 0.0078125 0.0
0.148438 0.0078125 0.0
0.15625 0.0078125 0.0
0.164062 0.0078125 0.0
0.171875 0.0078125 0.0
0.179688 0.0078125 0.0
0.1875 0.0078125 0.0
0.195312 0.0078125 0.0
0.203125 0.0078125 0.0
0.210938 0.0078125 0.0
0.21875 0.0078125 0.0
0.226562 0.0078125 0.0
0.234375 0.0078125 0.0
0.242188 0.0078125 0.0
0.25 0.0078125 0.0
0.257812 0.0078125 0.0
0.265625 0.0078125 0.0
0.273438 0.0078125 0.0
0.28125 0.0078125 0.0
0.289062 0.0078125 0.0
0.296875 0.0078125 0.0
0.304688 0.0078125 0.0
0.3125 0.0078125 0.0
0.320312 0.0078125 0.0
0.328125 0.0078125 0.0
0.335938 0.0078125 0.0
0.34375 0.0078125 0.0
0.351562 0.0078125 0.0
0.359375 0.0078125 0.0
0.367188 0.0078125 0.0
0.375 0.0078125 0.0
0.382812 0.0078125 0.0
0.390625 0.0078125 0.0
0.398438 0.0078125 0.0
0.40625 0.0078125 0.0
0.414062 0.0078125 0.0
0.421875 0.0078125 0.0
0.429688 0.0078125 0.0
0.4375 0.0078125 0.0
0.445312 0.0078125 0.0
0.453125 0.0078125 0.0
0.460938 0.0078125 0.0
0.46875 0.0078125 0.0
0.476562 0.0078125 0.0
0.484375 0.0078125 0.0
0.492188 0.0078125 0.0
0.5 0.0078125 0.0
0.507812 0.0078125 0.0
0.515625 0.0078125 0.0
0.523438 0.0078125 0.0
0.53125 0.0078125 0.0
0.539062 0.0078125 0.0
0.546875 0.0078125 0.0
0.554688 0.0078125 0.0
0.5625 0.0078125 0.0
0.570312 0.0078125 0.0
0.578125 0.0078125 0.0
0.585938 0.0078125 0.0
0.59375 0.0078125 0.0
0.601562 0.0078125 0.0
0.609375 0.0078125 0.0
0.617188 0.0078125 0.0
0.625 0.0078125 0.0
0.632812 0.0078125 0.0
0.640625 0.0078125 0.0
0.648438 0.0078125 0.0
0.65625 0.0078125 0.0
0.664062 0.0078125 0.0
0.671875 0.0078125 0.0
0.679688 0.0078125 0.0
0.6875 0.0078125 0.0
0.695312 0.0078125 0.0
0.703125 0.0078125 0.0
0.710938 0.0078125 0.0
0.71875 0.0078125 0.0
0.726562 0.0078125 0.0
0.734375 0.0078125 0.0
0.742188 0.0078125 0.0
0.75 0.0078125 0.0
0.757812 0.0078125 0.0
0.765625 0.0078125 0.0
0.773438 0.0078125 0.0
0.78125 0.0078125 0.0
0.789062 0.0078125 0.0
0.796875 0.0078125 0.0
0.804688 0.0078125 0.0
0.8125 0.0078125 0.0
0.820312 0.0078125 0.0
0.828125 0.0078125 0.0
0.835938 0.0078125 0.0
0.84375 0.0078125 0.0
0.851562 0.0078125 0.0
0.859375 0.0078125 0.0
0.867188 0.0078125 0.0
0.875 0.0078125 0.0
0.882812 0.0078125 0.0
0.890625 0.0078125 0.0
0.898438 0.0078125 0.0
0.90625 0.0078125 0.0
0.914062 0.0078125 0.0
0.921875 0.0078125 0.0
0.929688 0.0078125 0.0
0.9375 0.0078125 0.0
0.945312 0.0078125 0.0
0.953125 0.0078125 0.0
0.960938 0.0078125 0.0
0.96875 0.0078125 0.0
0.976562 0.0078125 0.0
0.984375 0.0078125 0.0
0.992188 0.0078125 0.0
1 0.0078125 0.0
0 0.015625 0.0
0.0078125 0.015625 0.0
0.015625 0.015625 0.0
0.0234375 0.015625 0.0
0.03125 0.015625 0.0
0.0390625 0.015625 0.0
0.046875 0.015625 0.0
0.0546875 0.015625 0.0
0.0625 0.015625 0.0
0.0703125 0.015625 0.0
0.078125 0.015625 0.0
0.0859375 0.015625 0.0
0.09375 0.015625 0.0
0.101562 0.015625 0.0
0.109375 0.015625 0.0
0.117188 0.015625 0.0
0.125 0.015625 0.0
0.132812 0.015625 0.0
0.140625 0.015625 0.0
0.148438 0.015625 0.0
0.15625 0.015625 0.0
0.164062 0.015625 0.0
0.171875 0.015625 0.0
0.179688 0.015625 0.0
0.1875 0.015625 0.0
0.195312 0.015625 0.0
0.203125 0.015625 0.0
0.210938 0.015625 0.0
0.21875 0.015625 0.0
0.226562 0.015625 0.0
0.234375 0.015625 0.0
0.242188 0.015625 0.0
0.25 0.015625 0.0
0.257812 0.015625 0.0
0.265625 0.015625 0.0
0.273438 0.015625 0.0
0.28125 0.015625 0.0
0.289062 0.015625 0.0
0.296875 0.015625 0.0
0.304688 0.015625 0.0
0.3125 0.015625 0.0
0.320312 0.015625 0.0
0.328125 0.015625 0.0
0.335938 0.015625 0.0
0.34375 0.015625 0.0
0.351562 0.015625 0.0
0.359375 0.015625 0.0
0.367188 0.015625 0.0
0.375 0.015625 0.0
0.382812 0.015625 0.0
0.390625 0.015625 0.0
0.398438 0.015625 0.0
0.40625 0.015625 0.0
0.414062 0.015625 0.0
0.421875 0.015625 0.0
0.429688 0.015625 0.0
0.4375 0.015625 0.0
0.445312 0.015625 0.0
0.453125 0.015625 0.0
0.460938 0.015625 0.0
0.46875 0.015625 0.0
0.476562 0.015625 0.0
0.484375 0.015625 0.0
0.492188 0.015625 0.0
0.5 0.015625 0.0
0.507812 0.015625 0.0
0.515625 0.015625 0.0
0.523438 0.015625 0.0
0.53125 0.015625 0.0
0.539062 0.015625 0.0
0.546875 0.015625 0.0
0.554688 0.015625 0.0
0.5625 0.015625 0.0
0.570312 0.015625 0.0
0.578125 0.015625 0.0
0.585938 0.015625 0.0
0.59375 0.015625 0.0
0.601562 0.015625 0.0
0.609375 0.015625 0.0
0.617188 0.015625 0.0
0.625 0.015625 0.0
0.632812 0.015625 0.0
0.640625 0.015625 0.0
0.648438 0.015625 0.0
0.65625 0.015625 0.0
0.664062 0.015625 0.0
0.671875 0.015625 0.0
0.679688 0.015625 0.0
0.6875 0.015625 0.0
0.695312 0.015625 0.0
0.703125 0.015625 0.0
0.710938 0.015625 0.0
0.71875 0.015625 0.0
0.726562 0.015625 0.0
0.734375 0.015625 0.0
0.742188 0.015625 0.0
0.75 0.015625 0.0
0.757812 0.015625 0.0
0.765625 0.015625 0.0
0.773438 0.015625 0.0
0.78125 0.015625 0.0
0.789062 0.015625 0.0
0.796875 0.015625 0.0
0.804688 0.015625 0.0
0.8125 0.015625 0.0
0.820312 0.015625 0.0
0.828125 0.015625 0.0
0.835938 0.015625 0.0
0.84375 0.015625 0.0
0.851562 0.015625 0.0
0.859375 0.015625 0.0
0.867188 0.015625 0.0
0.875 0.015625 0.0
0.882812 0.015625 0.0
0.890625 0.015625 0.0
0.898438 0.015625 0.0
0.90625 0.015625 0.0
0.914062 0.015625 0.0
0.921875 0.015625 0.0
0.929688 0.015625 0.0
0.9375 0.015625 0.0
0.945312 0.015625 0.0
0.953125 0.015625 0.0
0.960938 0.015625 0.0
0.96875 0.015625 0.0
0.976562 0.015625 0.0
0.984375 0.015625 0.0
0.992188 0.015625 0.0
1 0.015625 0.0
0 0.0234375 0.0
0.0078125 0.0234375 0.0
0.015625 0.0234375 0.0
0.0234375 0.0234375 0.0
0.03125 0.0234375 0.0
0.0390625 0.0234375 0.0
0.046875 0.0234375 0.0
0.0546875 0.0234375 0.0
0.0625 0.0234375 0.0
0.0703125 0.0234375 0.0
0.078125 0.0234375 0.0
0.0859375 0.0234375 0.0
0.09375 0.0234375 0.0
0.101562 0.0234375 0.0
0.109375 0.0234375 0.0
0.117188 0.0234375 0.0
0.125 0.0234375 0.0
0.132812 0.0234375 0.0
0.140625 0.0234375 0.0
0.148438 0.0234375 0.0
0.15625 0.0234375 0.0
0.164062 0.0234375 0.0
0.171875 0.0234375 0.0
0.179688 0.0234375 0.0
0.1875 0.0234375 0.0
0.195312 0.0234375 0.0
0.203125 0.0234375 0.0
0.210938 0.0234375 0.0
0.21875 0.0234375 0.0
0.226562 0.0234375 0.0
0.234375 0.0234375 0.0
0.242188 0.0234375 0.0
0.25 0.0234375 0.0
0.257812 0.0234375 0.0
0.265625 0.0234375 0.0
0.273438 0.0234375 0.0
0.28125 0.0234375 0.0
0.289062 0.0234375 0.0
0.296875 0.0234375 0.0
0.304688 0.0234375 0.0
0.3125 0.0234375 0.0
0.320312 0.0234375 0.0
0.328125 0.0234375 0.0
0.335938 0.0234375 0.0
0.34375 0.0234375 0.0
0.351562 0.0234375 0.0
0.359375 0.0234375 0.0
0.367188 0.0234375 0.0
0.375 0.0234375 0.0
0.382812 0.0234375 0.0
0.390625 0.0234375 0.0
0.398438 0.0234375 0.0
0.40625 0.0234375 0.0
0.414062 0.0234375 0.0
0.421875 0.0234375 0.0
0.429688 0.0234375 0.0
0.4375 0.0234375 0.0
0.445312 0.0234375 0.0
0.453125 0.0234375 0.0
0.460938 0.0234375 0.0
0.46875 0.0234375 0.0
0.476562 0.0234375 0.0
0.484375 0.0234375 0.0
0.492188 0.0234375 0.0
0.5 0.0234375 0.0
0.507812 0.0234375 0.0
0.515625 0.0234375 0.0
0.523438 0.0234375 0.0
0.53125 0.0234375 0.0
0.539062 0.0234375 0.0
0.546875 0.0234375 0.0
0.554688 0.0234375 0.0
0.5625 0.0234375 0.0
0.570312 0.0234375 0.0
0.578125 0.0234375 0.0
0.585938 0.0234375 0.0
0.59375 0.0234375 0.0
0.601562 0.0234375 0.0
0.609375 0.0234375 0.0
0.617188 0.0234375 0.0
0.625 0.0234375 0.0
0.632812 0.0234375 0.0
0.640625 0.0234375 0.0
0.648438 0.0234375 0.0
0.65625 0.0234375 0.0
0.664062 0.0234375 0.0
0.671875 0.0234375 0.0
0.679688 0.0234375 0.0
0.6875 0.0234375 0.0
0.695312 0.0234375 0.0
0.703125 0.0234375 0.0
0.710938 0.0234375 0.0
0.71875 0.0234375 0.0
0.726562 0.0234375 0.0
0.734375 0.0234375 0.0
0.742188 0.0234375 0.0
0.75 0.0234375 0.0
0.757812 0.0234375 0.0
[...]
<CellData>
<DataArray type="Float64" Name="Pressure" format="ascii">
0
0.0592478
0.0592499
0.0592491
0.0592441
0.0592333
0.0592147
0.0591866
0.0591479
0.0590984
0.0590385
0.0589694
0.0588929
0.0588109
0.0587252
0.0586375
0.0585492
0.0584614
0.0583746
0.0582891
0.058205
0.0581218
0.0580389
0.0579557
0.0578711
0.0577842
0.057694
0.0575993
0.0574987
0.0573905
0.0572724
0.0571416
0.0569945
0.0568271
0.056635
0.056414
0.0561596
0.0558679
0.0555353
0.055158
0.0547325
0.0542556
0.0537239
0.0531352
0.052488
0.0517823
0.0510199
0.0502042
0.0493406
0.0484376
0.047507
0.0465636
0.0456247
0.0447096
0.0438391
0.0430352
0.0423204
0.0417179
0.0412506
0.040941
0.0408105
0.040879
0.0411641
0.041681
0.0424417
0.0434549
0.044725
0.0462521
0.0480313
0.050052
0.052297
0.0547425
0.0573568
0.0600999
0.0629233
0.0657699
0.0685743
0.0712642
0.0737616
0.0759862
0.0778587
0.0793055
0.0802635
0.0806857
0.0805462
0.0798438
0.0786046
0.0768814
0.074751
0.0723089
0.069662
0.0669198
0.0641865
0.0615541
0.0590968
0.0568694
0.0549067
0.0532259
0.0518288
0.0507057
0.0498382
0.049202
0.0487686
0.0485072
0.0483862
0.0483741
0.0484413
0.0485611
0.0487108
0.0488727
0.0490338
0.0491857
0.0493235
0.0494451
0.0495506
0.049641
0.0497179
0.0497834
0.049839
0.0498862
0.0499263
0.0499601
0.0499878
0.0500096
0.050025
0.050033
0.0500331
0.0500294
0.0592438
0.0592458
0.0592461
0.059243
0.0592352
0.0592213
0.0591998
0.0591696
0.0591297
0.05908
0.0590208
0.0589532
0.0588786
0.0587986
0.0587148
0.0586287
0.0585417
0.0584546
0.0583682
0.0582828
0.0581984
0.0581148
0.0580317
0.0579483
0.0578639
0.0577776
0.0576884
0.0575951
0.0574962
0.0573899
0.0572738
0.057145
0.0570002
0.0568355
0.0566468
0.0564301
0.0561813
0.0558966
0.0555724
0.0552051
0.054791
0.0543268
0.0538091
0.0532354
0.0526041
0.0519148
0.0511688
0.050369
0.0495206
0.0486316
0.0477134
0.0467804
0.0458495
0.0449397
0.0440717
0.0432673
0.0425491
0.0419405
0.0414645
0.0411437
0.0409996
0.0410524
0.0413196
0.0418165
0.0425553
0.0435444
0.0447884
0.0462875
0.0480365
0.0500249
0.0522356
0.0546446
0.0572206
0.0599236
0.0627057
0.0655101
0.0682721
0.0709202
0.0733776
0.0755651
0.0774049
0.0788248
0.0797633
0.0801748
0.0800345
0.0793419
0.0781233
0.0764312
0.0743413
0.0719475
0.0693545
0.0666697
0.063995
0.0614201
0.0590174
0.0568405
0.0549233
0.0532824
0.0519196
0.0508252
0.0499811
0.0493628
0.0489419
0.0486875
0.0485678
0.0485515
0.0486095
0.0487158
0.0488491
0.0489927
0.0491351
0.049269
0.0493905
0.0494979
0.0495914
0.0496719
0.0497409
0.0498
0.0498505
0.0498936
0.0499303
0.0499612
0.0499865
0.0500063
0.0500203
0.050028
0.0500294
0.0500257
0.0592418
0.0592455
0.0592456
0.0592415
0.0592321
0.0592163
0.059193
0.0591613
0.0591203
0.0590699
0.0590105
0.058943
0.0588688
0.0587893
0.058706
0.0586205
0.0585338
0.058447
0.0583607
0.0582753
0.0581909
0.0581074
0.0580245
0.0579417
0.0578583
0.0577736
0.0576866
0.0575961
0.0575007
0.0573985
0.0572872
0.0571639
0.057025
0.0568668
0.0566852
0.0564762
0.056236
0.0559608
0.0556469
0.0552905
0.0548877
0.0544345
0.053927
0.0533619
0.0527365
0.0520499
0.0513028
0.0504976
0.0496392
0.0487352
0.0477972
0.0468397
0.0458807
0.0449403
0.0440403
0.0432037
0.0424541
0.0418153
0.0413109
0.0409636
0.0407949
0.0408245
0.0410699
0.0415458
0.042264
0.0432327
0.0444563
0.0459345
0.0476622
0.0496289
0.0518177
0.0542049
0.0567593
0.0594417
0.0622046
0.0649919
0.0677395
0.0703763
0.0728261
0.0750099
0.0768497
0.0782732
0.0792183
0.0796386
0.0795085
0.078827
0.0776197
0.0759388
0.0738603
0.0714788
0.0688996
0.0662311
0.0635758
0.0610237
0.0586474
0.0564996
0.0546138
0.0530056
0.0516763
0.0506159
0.0498063
0.0492234
0.0488389
0.0486217
0.0485388
0.0485571
0.0486451
0.0487749
0.0489235
0.0490746
0.0492175
0.0493466
0.0494598
0.0495574
0.0496408
0.0497118
0.0497724
0.0498243
0.0498689
0.0499072
0.04994
0.0499678
0.0499908
0.0500088
0.0500218
0.0500292
0.0500308
0.050026
0.0592433
0.0592485
0.0592493
0.059245
0.0592348
0.0592179
0.0591933
0.0591601
0.0591177
0.059066
0.0590054
0.0589369
0.0588618
0.0587816
0.0586979
0.058612
0.0585251
0.0584382
0.0583518
0.0582665
0.0581823
0.0580992
0.058017
0.0579354
0.0578536
0.0577712
0.0576874
0.0576011
0.0575109
0.0574152
0.0573112
0.0571961
0.057066
0.056917
0.0567446
0.0565447
0.0563132
0.0560461
0.055739
0.0553873
0.0549857
0.0545289
0.0540117
0.0534291
0.0527774
0.0520542
0.0512602
0.0503988
0.0494768
0.0485046
0.047496
0.0464683
0.0454412
0.0444367
0.0434779
0.0425885
0.0417925
0.0411137
0.0405752
0.0401988
0.0400051
0.0400126
0.0402377
0.0406941
0.0413926
0.0423406
0.0435418
0.0449959
0.0466977
0.0486368
0.0507967
0.0531548
0.0556808
0.0583369
0.0610769
0.0638463
0.0665825
0.0692157
0.0716707
0.0738689
0.0757324
0.0771877
0.0781713
0.0786347
0.0785497
0.0779125
0.0767465
0.0751024
0.0730554
0.0707005
0.0681444
0.0654971
0.0628633
0.0603345
0.0579842
0.0558651
0.0540101
0.0524337
0.0511364
0.050108
0.0493309
0.0487827
0.0484373
0.0482655
0.0482356
0.0483135
0.048465
0.0486573
0.0488624
0.0490595
0.0492355
0.049385
0.049508
0.0496076
0.049688
0.0497536
0.0498078
0.0498535
0.0498924
0.0499259
0.0499547
0.0499794
0.05
0.0500165
0.0500287
0.0500362
0.0500384
0.0500347
0.059249
0.059256
0.0592578
0.0592538
0.0592434
0.0592256
0.0591997
0.0591648
0.0591205
0.0590666
0.0590038
0.0589332
0.0588562
0.0587744
0.0586895
0.0586026
0.0585152
0.0584279
0.0583414
0.0582562
0.0581723
0.0580899
0.0580088
0.0579286
0.0578491
0.0577698
0.0576901
0.0576093
0.0575259
0.0574382
0.0573435
0.0572381
0.0571178
0.0569778
0.0568131
0.0566185
0.0563889
0.0561188
0.0558021
0.0554318
0.0550004
0.0545
0.0539235
0.0532656
0.0525236
0.051698
0.0507928
0.0498155
0.0487771
0.0476918
0.0465767
0.0454514
0.0443372
0.0432569
0.0422335
0.0412906
0.040451
0.0397372
0.0391706
0.0387714
0.0385582
0.0385476
0.0387544
0.0391908
0.0398663
0.0407874
0.0419573
0.0433753
0.0450364
0.0469308
0.0490432
0.0513523
0.0538298
0.0564402
0.05914
0.0618776
0.0645933
0.0672201
0.069685
0.0719112
0.0738213
0.0753413
0.0764057
0.0769628
0.0769802
0.076449
0.0753879
0.0738429
0.0718862
0.0696109
0.0671239
0.0645363
0.061955
0.0594736
0.0571674
0.0550901
0.0532742
0.0517338
0.0504683
0.0494669
0.0487129
0.0481859
0.0478632
0.0477202
0.0477294
0.0478599
0.0480775
0.0483463
0.0486321
0.0489061
0.0491485
0.0493493
0.0495076
0.0496283
0.0497191
0.0497878
0.0498409
0.0498833
0.0499183
0.0499479
0.0499733
0.0499951
0.0500136
0.0500288
0.0500405
0.0500484
0.0500521
0.0500509
0.0592596
0.0592687
0.0592718
0.0592684
0.0592577
0.0592391
0.0592117
0.0591746
0.0591275
0.0590705
0.0590045
0.0589307
0.0588509
0.0587668
0.05868
0.0585919
0.0585035
0.0584158
0.0583292
0.0582441
0.0581608
0.0580792
0.0579994
0.0579212
0.0578445
0.057769
0.0576945
0.0576201
0.0575445
0.0574655
0.0573796
0.0572825
0.0571686
0.0570315
0.0568643
0.0566599
0.0564102
0.0561066
0.0557395
0.0552989
0.0547755
0.0541619
0.0534535
0.0526491
0.0517508
0.0507647
0.0496999
0.0485689
0.0473866
0.0461703
0.0449391
0.0437135
0.0425149
0.0413653
0.0402865
0.0393001
0.0384271
0.0376877
0.0371009
0.0366847
0.0364553
0.0364273
0.0366134
0.0370243
0.0376682
0.0385506
0.039674
0.0410378
0.0426372
0.0444635
0.0465029
0.048736
0.0511375
0.0536752
0.0563095
0.0589932
0.0616711
0.064281
0.0667538
0.0690163
0.070993
0.0726104
0.0738015
0.0745108
0.0747
0.0743534
0.073481
0.0721211
0.0703387
0.068222
0.0658748
0.0634081
0.0609299
0.0585367
0.0563064
0.0542949
0.0525361
0.0510442
0.049818
0.0488464
0.0481126
0.0475976
0.047282
0.0471459
0.047168
0.0473235
0.0475828
0.0479112
0.0482716
0.0486283
0.0489523
0.0492256
0.0494416
0.0496037
0.0497211
0.0498047
0.0498649
0.0499094
0.0499437
0.0499714
0.0499945
0.0500141
0.0500308
0.0500449
0.0500563
0.0500649
0.0500706
0.050073
0.0592758
0.059287
0.0592916
0.0592889
0.0592781
0.0592583
0.0592287
0.0591886
0.0591377
0.0590765
0.0590062
0.0589285
0.0588451
0.0587582
0.0586692
0.0585796
0.0584902
0.058402
0.0583152
0.0582303
0.0581475
0.0580668
0.0579886
0.0579127
0.0578394
0.0577685
0.0576997
0.057632
0.0575635
0.057491
0.0574097
0.057313
0.0571929
0.0570401
0.0568442
0.0565937
0.0562763
0.0558798
0.0553931
0.0548072
0.0541163
0.0533181
0.0524142
0.0514099
0.0503137
0.0491371
0.0478939
0.0465999
0.0452724
0.04393
0.042592
0.0412782
0.0400088
0.0388038
0.037683
0.0366655
0.0357699
0.0350136
0.0344131
0.0339838
0.0337394
0.0336924
0.0338536
0.0342319
0.034834
0.0356645
0.0367254
0.0380159
0.0395318
0.0412653
0.0432045
0.0453325
0.0476274
0.050061
0.0525987
0.0551989
0.0578129
0.0603846
0.0628513
0.0651454
0.0671958
0.0689312
0.0702844
0.0711968
0.0716241
0.0715413
0.0709477
0.0698693
0.0683598
0.0664971
0.0643782
0.0621105
0.0598015
0.05755
0.0554377
0.0535245
0.0518474
0.0504229
0.0492507
0.04832
0.0476137
0.0471135
0.0468016
0.0466618
0.0466781
0.0468327
0.0471028
0.0474593
0.0478668
0.048287
0.0486845
0.049032
0.0493149
0.0495312
0.0496883
0.0497984
0.0498744
0.0499274
0.0499654
0.049994
0.0500166
0.050035
0.0500505
0.0500637
0.0500749
0.0500844
0.0500923
0.0500988
0.0592981
0.0593115
0.0593177
0.0593157
0.0593045
0.0592831
0.0592505
0.0592063
0.0591505
0.059084
0.0590085
0.058926
0.0588386
0.0587485
0.0586571
0.0585659
0.0584755
0.0583866
0.0582995
0.0582146
0.0581322
0.0580525
0.057976
0.0579028
0.0578331
0.0577669
0.0577032
0.0576402
0.0575744
0.0575003
0.0574103
0.0572939
0.057139
0.0569312
0.0566551
0.0562951
0.0558374
0.055271
0.0545886
0.0537874
0.0528687
0.0518376
0.0507028
0.0494758
0.0481702
0.0468012
0.0453853
0.0439399
0.0424827
0.041032
0.039606
0.0382232
0.0369016
0.0356587
0.0345119
0.0334774
0.0325711
0.0318077
0.031201
0.0307635
0.0305069
0.0304412
0.0305751
0.0309159
0.0314689
0.0322375
0.0332233
0.034425
0.0358391
0.0374587
0.0392736
0.0412696
0.0434282
0.0457257
0.048133
0.050615
0.0531302
0.0556307
0.0580619
0.0603641
0.0624732
0.0643231
0.065849
0.0669914
0.0677011
0.0679442
0.0677075
0.0670019
0.0658647
0.0643587
0.062568
0.0605911
0.0585317
0.0564885
0.0545468
0.0527721
0.0512071
0.0498732
0.0487737
0.0478993
0.0472342
0.0467601
0.0464599
0.0463193
0.0463257
0.0464666
0.0467262
0.0470823
0.0475049
0.0479581
0.0484041
0.0488097
0.0491526
0.0494235
0.0496254
0.0497687
0.0498675
0.0499346
0.0499807
0.0500133
0.0500374
0.050056
0.050071
0.0500837
0.0500948
0.0501051
0.0501152
0.0501259
0.0593269
0.0593427
0.0593506
0.0593492
0.0593372
0.0593133
0.0592768
0.0592273
0.0591654
0.0590926
0.059011
0.0589232
0.0588315
0.0587381
0.0586445
0.0585515
0.0584599
0.05837
0.0582823
0.058197
0.0581147
0.0580359
0.0579609
0.0578902
0.0578237
0.0577604
0.057698
0.0576325
0.0575571
0.0574621
0.0573349
0.0571594
0.0569175
0.0565904
0.0561605
0.0556134
0.0549395
0.0541343
0.0531984
0.0521373
0.05096
0.0496787
0.0483075
0.0468621
0.0453593
0.0438159
0.0422495
0.0406773
0.0391164
0.0375837
0.0360957
0.0346686
0.0333179
0.0320586
0.0309049
0.0298706
0.0289683
0.0282101
0.0276071
0.0271694
0.026906
0.0268249
0.0269329
0.0272355
0.0277366
0.0284387
0.0293424
0.0304464
0.0317472
0.0332388
0.0349126
0.0367566
0.0387554
0.0408897
0.0431358
0.045465
0.0478436
0.0502322
0.0525861
0.0548551
0.0569845
0.0589165
0.0605923
0.061955
0.0629539
0.0635489
0.0637151
0.0634477
0.0627652
0.0617101
0.0603477
0.058761
0.0570433
0.0552891
0.0535845
0.0520002
0.0505864
0.0493721
0.0483671
0.0475672
0.0469592
0.0465262
0.0462517
0.0461218
0.0461255
0.0462534
0.0464946
0.0468334
0.0472466
0.0477033
0.0481679
0.0486057
0.0489894
0.0493036
0.0495455
0.0497221
0.049846
0.0499307
0.0499881
0.0500273
0.0500549
0.050075
0.0500904
0.050103
0.0501142
0.0501252
0.0501372
0.0501517
0.0593626
0.0593812
0.0593908
0.0593898
0.0593764
0.0593492
0.0593075
0.0592513
0.0591821
0.059102
0.0590138
0.0589206
0.0588247
0.0587282
0.0586322
0.0585375
0.0584444
0.0583531
0.0582641
0.0581778
0.058095
0.0580163
0.0579422
0.0578725
0.057806
0.0577397
0.0576682
0.0575831
0.0574721
0.0573192
0.057105
0.0568079
0.0564068
0.0558832
0.0552237
0.054421
0.0534738
0.0523869
0.0511696
0.0498349
0.0483981
0.046876
0.0452864
0.0436472
0.0419761
0.0402906
0.0386073
0.0369427
0.0353121
0.0337303
0.0322116
0.0307692
0.0294161
0.0281642
0.0270251
0.0260093
0.0251271
0.0243876
0.0237995
0.0233706
0.0231077
0.0230168
0.023103
0.0233702
0.0238211
0.0244571
0.0252782
0.0262826
0.0274668
0.0288256
0.0303512
0.0320335
0.0338599
0.0358144
0.037878
0.040028
0.0422378
0.0444763
0.0467084
0.0488945
0.0509906
0.0529494
0.0547216
0.056257
0.0575082
0.0584334
0.0590005
0.0591917
0.0590073
0.058468
0.0576157
0.0565116
0.0552313
0.0538573
0.0524712
0.051145
0.0499354
0.0488803
0.0479992
0.0472959
0.046763
0.0463874
0.0461542
0.0460498
0.0460637
0.0461875
0.046413
0.0467293
0.047119
0.0475578
0.0480148
0.0484577
0.048858
0.0491967
0.0494661
0.0496692
0.0498155
0.0499176
0.0499874
0.0500348
0.0500673
0.0500901
0.0501067
0.0501197
0.0501311
0.0501426
0.0501562
0.0501737
0.0594059
0.0594277
0.0594392
0.0594382
0.0594226
0.0593909
0.0593425
0.0592784
0.0592008
0.0591127
0.0590178
0.0589192
0.0588195
0.0587202
0.058622
0.0585252
0.05843
0.0583365
0.0582452
0.058157
0.0580725
0.0579925
0.0579167
0.0578434
0.0577687
0.0576855
0.0575828
0.0574454
0.0572536
0.0569846
0.0566143
0.0561202
0.0554843
0.0546953
0.0537486
0.0526471
0.0513994
0.0500187
0.0485217
0.0469267
0.045253
0.0435204
0.0417478
0.0399538
0.0381557
0.0363699
0.0346115
0.0328948
0.0312328
0.0296378
0.0281209
0.0266928
0.0253633
0.0241417
0.0230366
0.022056
0.0212077
0.0204985
0.0199348
0.0195225
0.0192666
0.0191716
0.019241
0.0194773
0.0198823
0.0204565
0.0211991
0.0221081
0.0231799
0.0244095
0.0257899
0.0273123
0.0289658
0.0307374
0.0326115
0.0345702
0.0365926
0.038655
0.0407306
0.0427895
0.0447986
0.0467219
0.0485211
0.0501564
0.0515877
0.0527773
0.0536922
0.0543076
0.0546103
0.054602
0.0543013
0.0537441
0.0529821
0.0520781
0.0511003
0.0501149
0.04918
0.0483404
0.0476257
0.04705
0.0466155
0.0463156
0.0461397
0.0460759
0.0461141
0.046246
0.0464644
0.0467607
0.0471224
0.047531
0.0479618
0.0483871
0.0487807
0.0491229
0.0494034
0.0496214
0.0497832
0.0498992
0.04998
0.0500356
0.0500736
0.0500997
0.0501181
0.050132
0.0501437
0.0501557
0.0501703
0.0501899
0.0594577
0.0594831
0.0594965
0.0594952
0.0594764
0.0594387
0.0593822
0.0593087
0.0592218
0.0591256
0.0590241
0.0589208
0.0588178
0.0587159
0.0586154
0.0585161
0.0584179
0.058321
0.0582262
0.0581343
0.0580461
0.0579613
0.0578776
0.0577901
0.0576896
0.0575623
0.0573895
0.0571479
0.0568114
0.056354
0.0557529
0.0549916
0.0540614
0.0529616
0.0516989
0.0502861
0.0487402
0.0470812
0.0453304
0.0435094
0.0416395
0.0397411
0.0378329
0.0359323
0.034055
0.0322152
0.0304256
0.0286975
0.0270411
0.0254656
0.0239794
0.0225903
0.0213053
0.0201312
0.0190742
0.0181402
0.0173346
0.0166627
0.0161291
0.0157381
0.0154933
0.0153979
0.0154543
0.0156642
0.0160283
0.0165465
0.0172175
0.018039
0.0190073
0.0201175
0.021363
0.0227361
0.0242271
0.0258249
0.0275165
0.0292873
0.0311209
0.0329989
0.0349012
0.0368059
0.0386891
0.040525
0.0422865
0.0439446
0.0454698
0.0468326
0.0480052
0.0489627
0.0496866
0.0501663
0.0504021
0.050407
0.0502069
0.0498397
0.0493521
0.0487952
0.0482195
0.0476701
0.0471825
0.046781
0.0464787
0.0462792
0.046179
0.0461711
0.0462472
0.0463994
0.0466207
0.0469037
0.047239
0.0476128
0.0480065
0.0483985
0.0487668
0.0490939
0.0493688
0.0495884
0.0497563
0.0498801
0.0499686
0.0500307
0.0500736
0.0501031
0.0501236
0.0501386
0.0501508
0.0501631
0.0501781
0.0501987
0.0595194
0.0595488
0.0595641
0.0595617
0.0595384
0.0594931
0.0594268
0.0593429
0.0592463
0.0591421
0.0590349
0.0589277
0.058822
0.0587178
0.0586146
0.0585119
0.0584094
0.0583075
0.058207
0.0581088
0.0580124
0.0579151
0.0578107
0.0576879
0.0575301
0.0573147
0.0570149
0.0566017
0.0560478
0.0553308
0.0544362
0.0533587
0.0521014
0.0506755
0.0490977
0.0473889
0.0455721
0.0436715
0.0417108
0.0397128
0.0376985
0.0356872
0.0336957
0.0317391
0.0298302
0.0279802
0.0261987
0.0244938
0.0228728
0.021342
0.0199071
0.0185734
0.0173457
0.0162286
0.0152266
0.0143437
0.013584
0.0129513
0.0124489
0.0120799
0.0118472
0.0117527
0.0117983
0.0119847
0.0123123
0.0127803
0.0133872
0.0141303
0.015006
0.0160094
0.0171344
0.0183738
0.0197189
0.0211599
0.0226857
0.024284
0.0259414
0.0276434
0.0293746
0.0311189
0.0328591
0.0345778
0.0362566
0.0378768
0.0394192
0.0408644
0.042193
0.0433864
0.0444279
0.0453035
0.0460042
0.0465272
0.0468775
0.0470684
0.0471216
0.0470657
0.0469338
0.0467606
0.0465791
0.0464179
0.046299
0.0462368
0.0462384
0.0463046
0.0464324
0.0466164
0.0468504
0.047128
0.0474416
0.0477812
0.0481337
0.0484836
0.0488144
0.0491122
0.0493673
0.0495762
0.0497402
0.0498645
0.0499561
0.0500218
0.0500682
0.0501004
0.0501229
0.0501389
0.0501517
0.050164
0.050179
0.0501995
0.0595926
0.0596265
0.0596434
0.0596389
0.0596097
0.059555
0.0594775
0.0593823
0.059276
0.0591647
0.0590529
0.0589428
0.0588349
0.0587283
0.0586217
0.0585141
0.0584055
0.0582962
0.0581869
0.058077
0.0579635
0.0578389
0.0576899
0.0574968
0.0572335
0.0568698
0.0563743
0.0557186
0.0548813
0.0538502
0.0526236
0.0512089
0.0496214
0.0478822
0.0460156
0.044048
0.0420059
0.039915
0.0377993
0.0356803
0.0335771
0.0315062
0.0294814
0.0275143
0.0256144
0.0237894
0.0220457
0.0203885
0.0188224
0.0173512
0.0159785
0.0147076
0.0135416
0.0124837
0.0115368
0.0107041
0.00998835
0.00939237
0.00891873
0.00856976
0.00834743
0.0082533
0.00828842
0.00845325
0.00874757
0.00917041
0.00971995
0.0103935
0.0111874
0.0120969
0.0131163
0.0142389
0.0154567
0.0167611
0.0181422
0.0195894
0.0210914
0.0226363
0.0242119
0.025806
0.027406
0.0290001
0.0305765
0.0321239
0.0336316
0.0350891
0.0364863
0.037813
0.0390591
0.0402148
0.0412705
0.0422175
0.0430492
0.0437616
0.0443546
0.0448328
0.0452059
0.0454886
0.0456999
0.045862
0.0459979
0.0461289
0.0462724
0.04644
0.0466375
0.0468657
0.047122
0.047402
0.0477
0.0480093
0.0483214
0.0486263
0.0489134
0.049173
0.0493985
0.0495866
0.049738
0.0498559
0.0499451
0.0500109
0.0500585
0.0500923
0.050116
0.050133
0.0501462
0.0501584
0.0501729
0.0501924
0.0596795
0.0597182
0.0597362
0.0597286
0.0596916
0.0596257
0.0595356
0.0594289
0.0593137
0.0591966
0.0590816
0.0589696
0.0588597
0.05875
0.0586385
0.0585242
0.0584068
0.0582864
0.0581624
0.0580312
0.0578841
0.0577061
0.0574746
0.0571603
0.0567298
0.0561494
0.0553903
0.054432
0.0532651
0.0518912
0.0503223
0.0485778
0.0466829
0.0446657
0.0425555
0.0403812
0.0381701
0.035947
0.0337337
0.031549
0.0294084
0.0273247
0.0253078
0.0233655
0.0215039
0.0197275
0.0180399
0.0164439
0.0149417
0.0135356
0.0122274
0.0110192
0.00991296
0.00891081
0.0080149
0.00722744
0.00655062
0.00598657
0.00553727
0.00520451
0.00498976
0.00489413
0.00491828
0.00506234
0.00532583
0.00570757
0.00620566
0.00681739
0.00753918
0.00836659
0.00929425
0.0103159
0.0114244
0.0126118
0.0138693
0.0151878
0.0165573
0.017968
0.0194097
0.0208726
0.0223475
0.0238257
0.0252998
0.0267635
0.0282115
0.02964
0.0310462
0.0324278
0.0337826
0.0351078
0.0363994
0.0376513
0.0388552
0.0400005
0.0410745
0.042064
0.0429566
0.0437433
0.0444205
0.0449919
0.045469
0.0458699
0.046216
0.0465286
0.0468247
0.0471153
0.0474056
0.0476964
0.0479858
0.0482704
0.0485459
0.0488073
0.0490495
0.0492674
0.0494575
0.0496183
0.0497503
0.0498557
0.0499377
0.05
0.0500463
0.0500799
0.050104
0.0501214
0.0501347
0.0501466
0.0501602
0.0501781
0.0597831
0.0598265
0.059845
0.0598326
0.0597859
0.0597071
0.0596038
0.059486
0.0593634
0.0592422
0.0591253
0.0590119
0.0588997
0.0587855
0.0586671
0.0585431
0.0584129
0.0582752
0.058126
0.0579558
0.0577476
0.0574765
0.0571102
0.0566124
0.0559477
0.0550866
0.0540099
0.0527105
0.051194
0.0494763
0.0475812
0.0455379
0.043378
0.0411339
0.0388364
0.0365143
0.034193
0.0318943
0.0296364
0.0274337
0.0252976
0.0232364
0.0212565
0.019362
0.017556
0.0158405
0.0142167
0.0126857
0.0112485
0.0099058
0.00865873
0.00750839
0.00645612
0.0055034
0.00465184
0.00390316
0.00325907
0.00272127
0.00229131
0.00197059
0.00176023
0.00166102
0.00167334
0.00179708
0.00203159
0.00237561
0.00282722
0.00338377
0.00404187
0.00479736
0.00564526
0.00657985
0.00759464
0.00868247
0.00983558
0.0110458
0.0123044
0.013603
0.014933
0.0162864
0.0176556
0.0190345
0.0204179
0.0218023
0.0231859
0.0245689
0.025953
0.0273415
0.0287384
0.030148
0.0315734
0.0330153