<?xml version="1.0"?>
<VTKFile type="StructuredGrid" version="0.1" byte_order="LittleEndian">
<StructuredGrid WholeExtent="0 200 0 100 0 0">
<Piece Extent="0 200 0 100 0 0">
<Points>
<DataArray type="Float64" NumberOfComponents="3" format="ascii">
0 0 0.0
0.05 0 0.0
0.1 0 0.0
0.15 0 0.0
0.2 0 0.0
0.25 0 0.0
0.3 0 0.0
0.35 0 0.0
0.4 0 0.0
0.45 0 0.0
0.5 0 0.0
0.55 0 0.0
0.6 0 0.0
0.65 0 0.0
0.7 0 0.0
0.75 0 0.0
0.8 0 0.0
0.85 0 0.0
0.9 0 0.0
0.95 0 0.0
1 0 0.0
1.05 0 0.0
1.1 0 0.0
1.15 0 0.0
1.2 0 0.0
1.25 0 0.0
1.3 0 0.0
1.35 0 0.0
1.4 0 0.0
1.45 0 0.0
1.5 0 0.0
1.55 0 0.0
1.6 0 0.0
1.65 0 0.0
1.7 0 0.0
1.75 0 0.0
1.8 0 0.0
1.85 0 0.0
1.9 0 0.0
1.95 0 0.0
2 0 0.0
2.05 0 0.0
2.1 0 0.0
2.15 0 0.0
2.2 0 0.0
2.25 0 0.0
2.3 0 0.0
2.35 0 0.0
2.4 0 0.0
2.45 0 0.0
2.5 0 0.0
2.55 0 0.0
2.6 0 0.0
2.65 0 0.0
2.7 0 0.0
2.75 0 0.0
2.8 0 0.0
2.85 0 0.0
2.9 0 0.0
2.95 0 0.0
3 0 0.0
3.05 0 0.0
3.1 0 0.0
3.15 0 0.0
3.2 0 0.0
3.25 0 0.0
3.3 0 0.0
3.35 0 0.0
3.4 0 0.0
3.45 0 0.0
3.5 0 0.0
3.55 0 0.0
3.6 0 0.0
3.65 0 0.0
3.7 0 0.0
3.75 0 0.0
3.8 0 0.0
3.85 0 0.0
3.9 0 0.0
3.95 0 0.0
4 0 0.0
4.05 0 0.0
4.1 0 0.0
4.15 0 0.0
4.2 0 0.0
4.25 0 0.0
4.3 0 0.0
4.35 0 0.0
4.4 0 0.0
4.45 0 0.0
4.5 0 0.0
4.55 0 0.0
4.6 0 0.0
4.65 0 0.0
4.7 0 0.0
4.75 0 0.0
4.8 0 0.0
4.85 0 0.0
4.9 0 0.0
4.95 0 0.0
5 0 0.0
5.05 0 0.0
5.1 0 0.0
5.15 0 0.0
5.2 0 0.0
5.25 0 0.0
5.3 0 0.0
5.35 0 0.0
5.4 0 0.0
5.45 0 0.0
5.5 0 0.0
5.55 0 0.0
5.6 0 0.0
5.65 0 0.0
5.7 0 0.0
5.75 0 0.0
5.8 0 0.0
5.85 0 0.0
5.9 0 0.0
5.95 0 0.0
6 0 0.0
6.05 0 0.0
6.1 0 0.0
6.15 0 0.0
6.2 0 0.0
6.25 0 0.0
6.3 0 0.0
6.35 0 0.0
6.4 0 0.0
6.45 0 0.0
6.5 0 0.0
6.55 0 0.0
6.6 0 0.0
6.65 0 0.0
6.7 0 0.0
6.75 0 0.0
6.8 0 0.0
6.85 0 0.0
6.9 0 0.0
6.95 0 0.0
7 0 0.0
7.05 0 0.0
7.1 0 0.0
7.15 0 0.0
7.2 0 0.0
7.25 0 0.0
7.3 0 0.0
7.35 0 0.0
7.4 0 0.0
7.45 0 0.0
7.5 0 0.0
7.55 0 0.0
7.6 0 0.0
7.65 0 0.0
7.7 0 0.0
7.75 0 0.0
7.8 0 0.0
7.85 0 0.0
7.9 0 0.0
7.95 0 0.0
8 0 0.0
8.05 0 0.0
8.1 0 0.0
8.15 0 0.0
8.2 0 0.0
8.25 0 0.0
8.3 0 0.0
8.35 0 0.0
8.4 0 0.0
8.45 0 0.0
8.5 0 0.0
8.55 0 0.0
8.6 0 0.0
8.65 0 0.0
8.7 0 0.0
8.75 0 0.0
8.8 0 0.0
8.85 0 0.0
8.9 0 0.0
8.95 0 0.0
9 0 0.0
9.05 0 0.0
9.1 0 0.0
9.15 0 0.0
9.2 0 0.0
9.25 0 0.0
9.3 0 0.0
9.35 0 0.0
9.4 0 0.0
9.45 0 0.0
9.5 0 0.0
9.55 0 0.0
9.6 0 0.0
9.65 0 0.0
9.7 0 0.0
9.75 0 0.0
9.8 0 0.0
9.85 0 0.0
9.9 0 0.0
9.95 0 0.0
10 0 0.0
0 0.04 0.0
0.05 0.04 0.0
0.1 0.04 0.0
0.15 0.04 0.0
0.2 0.04 0.0
0.25 0.04 0.0
0.3 0.04 0.0
0.35 0.04 0.0
0.4 0.04 0.0
0.45 0.04 0.0
0.5 0.04 0.0
0.55 0.04 0.0
0.6 0.04 0.0
0.65 0.04 0.0
0.7 0.04 0.0
0.75 0.04 0.0
0.8 0.04 0.0
0.85 0.04 0.0
0.9 0.04 0.0
0.95 0.04 0.0
1 0.04 0.0
1.05 0.04 0.0
1.1 0.04 0.0
1.15 0.04 0.0
1.2 0.04 0.0
1.25 0.04 0.0
1.3 0.04 0.0
1.35 0.04 0.0
1.4 0.04 0.0
1.45 0.04 0.0
1.5 0.04 0.0
1.55 0.04 0.0
1.6 0.04 0.0
1.65 0.04 0.0
1.7 0.04 0.0
1.75 0.04 0.0
1.8 0.04 0.0
1.85 0.04 0.0
1.9 0.04 0.0
1.95 0.04 0.0
2 0.04 0.0
2.05 0.04 0.0
2.1 0.04 0.0
2.15 0.04 0.0
2.2 0.04 0.0
2.25 0.04 0.0
2.3 0.04 0.0
2.35 0.04 0.0
2.4 0.04 0.0
2.45 0.04 0.0
2.5 0.04 0.0
2.55 0.04 0.0
2.6 0.04 0.0
2.65 0.04 0.0
2.7 0.04 0.0
2.75 0.04 0.0
2.8 0.04 0.0
2.85 0.04 0.0
2.9 0.04 0.0
2.95 0.04 0.0
3 0.04 0.0
3.05 0.04 0.0
3.1 0.04 0.0
3.15 0.04 0.0
3.2 0.04 0.0
3.25 0.04 0.0
3.3 0.04 0.0
3.35 0.04 0.0
3.4 0.04 0.0
3.45 0.04 0.0
3.5 0.04 0.0
3.55 0.04 0.0
3.6 0.04 0.0
3.65 0.04 0.0
3.7 0.04 0.0
3.75 0.04 0.0
3.8 0.04 0.0
3.85 0.04 0.0
3.9 0.04 0.0
3.95 0.04 0.0
4 0.04 0.0
4.05 0.04 0.0
4.1 0.04 0.0
4.15 0.04 0.0
4.2 0.04 0.0
4.25 0.04 0.0
4.3 0.04 0.0
4.35 0.04 0.0
4.4 0.04 0.0
4.45 0.04 0.0
4.5 0.04 0.0
4.55 0.04 0.0
4.6 0.04 0.0
4.65 0.04 0.0
4.7 0.04 0.0
4.75 0.04 0.0
4.8 0.04 0.0
4.85 0.04 0.0
4.9 0.04 0.0
4.95 0.04 0.0
5 0.04 0.0
5.05 0.04 0.0
5.1 0.04 0.0
5.15 0.04 0.0
5.2 0.04 0.0
5.25 0.04 0.0
5.3 0.04 0.0
5.35 0.04 0.0
5.4 0.04 0.0
5.45 0.04 0.0
5.5 0.04 0.0
5.55 0.04 0.0
5.6 0.04 0.0
5.65 0.04 0.0
5.7 0.04 0.0
5.75 0.04 0.0
5.8 0.04 0.0
5.85 0.04 0.0
5.9 0.04 0.0
5.95 0.04 0.0
6 0.04 0.0
6.05 0.04 0.0
6.1 0.04 0.0
6.15 0.04 0.0
6.2 0.04 0.0
6.25 0.04 0.0
6.3 0.04 0.0
6.35 0.04 0.0
6.4 0.04 0.0
6.45 0.04 0.0
6.5 0.04 0.0
6.55 0.04 0.0
6.6 0.04 0.0
6.65 0.04 0.0
6.7 0.04 0.0
6.75 0.04 0.0
6.8 0.04 0.0
6.85 0.04 0.0
6.9 0.04 0.0
6.95 0.04 0.0
7 0.04 0.0
7.05 0.04 0.0
7.1 0.04 0.0
7.15 0.04 0.0
7.2 0.04 0.0
7.25 0.04 0.0
7.3 0.04 0.0
7.35 0.04 0.0
7.4 0.04 0.0
7.45 0.04 0.0
7.5 0.04 0.0
7.55 0.04 0.0
7.6 0.04 0.0
7.65 0.04 0.0
7.7 0.04 0.0
7.75 0.04 0.0
7.8 0.04 0.0
7.85 0.04 0.0
7.9 0.04 0.0
7.95 0.04 0.0
8 0.04 0.0
8.05 0.04 0.0
8.1 0.04 0.0
8.15 0.04 0.0
8.2 0.04 0.0
8.25 0.04 0.0
8.3 0.04 0.0
8.35 0.04 0.0
8.4 0.04 0.0
8.45 0.04 0.0
8.5 0.04 0.0
8.55 0.04 0.0
8.6 0.04 0.0
8.65 0.04 0.0
8.7 0.04 0.0
8.75 0.04 0.0
8.8 0.04 0.0
8.85 0.04 0.0
8.9 0.04 0.0
8.95 0.04 0.0
9 0.04 0.0
9.05 0.04 0.0
9.1 0.04 0.0
9.15 0.04 0.0
9.2 0.04 0.0
9.25 0.04 0.0
9.3 0.04 0.0
9.35 0.04 0.0
9.4 0.04 0.0
9.45 0.04 0.0
9.5 0.04 0.0
9.55 0.04 0.0
9.6 0.04 0.0
9.65 0.04 0.0
9.7 0.04 0.0
9.75 0.04 0.0
9.8 0.04 0.0
9.85 0.04 0.0
9.9 0.04 0.0
9.95 0.04 0.0
10 0.04 0.0
0 0.08 0.0
0.05 0.08 0.0
0.1 0.08 0.0
0.15 0.08 0.0
0.2 0.08 0.0
0.25 0.08 0.0
0.3 0.08 0.0
0.35 0.08 0.0
0.4 0.08 0.0
0.45 0.08 0.0
0.5 0.08 0.0
0.55 0.08 0.0
0.6 0.08 0.0
0.65 0.08 0.0
0.7 0.08 0.0
0.75 0.08 0.0
0.8 0.08 0.0
0.85 0.08 0.0
0.9 0.08 0.0
0.95 0.08 0.0
1 0.08 0.0
1.05 0.08 0.0
1.1 0.08 0.0
1.15 0.08 0.0
1.2 0.08 0.0
1.25 0.08 0.0
1.3 0.08 0.0
1.35 0.08 0.0
1.4 0.08 0.0
1.45 0.08 0.0
1.5 0.08 0.0
1.55 0.08 0.0
1.6 0.08 0.0
1.65 0.08 0.0
1.7 0.08 0.0
1.75 0.08 0.0
1.8 0.08 0.0
1.85 0.08 0.0
1.9 0.08 0.0
1.95 0.08 0.0
2 0.08 0.0
2.05 0.08 0.0
2.1 0.08 0.0
2.15 0.08 0.0
2.2 0.08 0.0
2.25 0.08 0.0
2.3 0.08 0.0
2.35 0.08 0.0
2.4 0.08 0.0
2.45 0.08 0.0
2.5 0.08 0.0
2.55 0.08 0.0
2.6 0.08 0.0
2.65 0.08 0.0
2.7 0.08 0.0
2.75 0.08 0.0
2.8 0.08 0.0
2.85 0.08 0.0
2.9 0.08 0.0
2.95 0.08 0.0
3 0.08 0.0
3.05 0.08 0.0
3.1 0.08 0.0
3.15 0.08 0.0
3.2 0.08 0.0
3.25 0.08 0.0
3.3 0.08 0.0
3.35 0.08 0.0
3.4 0.08 0.0
3.45 0.08 0.0
3.5 0.08 0.0
3.55 0.08 0.0
3.6 0.08 0.0
3.65 0.08 0.0
3.7 0.08 0.0
3.75 0.08 0.0
3.8 0.08 0.0
3.85 0.08 0.0
3.9 0.08 0.0
3.95 0.08 0.0
4 0.08 0.0
4.05 0.08 0.0
4.1 0.08 0.0
4.15 0.08 0.0
4.2 0.08 0.0
4.25 0.08 0.0
4.3 0.08 0.0
4.35 0.08 0.0
4.4 0.08 0.0
4.45 0.08 0.0
4.5 0.08 0.0
4.55 0.08 0.0
4.6 0.08 0.0
4.65 0.08 0.0
4.7 0.08 0.0
4.75 0.08 0.0
4.8 0.08 0.0
4.85 0.08 0.0
4.9 0.08 0.0
4.95 0.08 0.0
5 0.08 0.0
5.05 0.08 0.0
5.1 0.08 0.0
5.15 0.08 0.0
5.2 0.08 0.0
5.25 0.08 0.0
5.3 0.08 0.0
5.35 0.08 0.0
5.4 0.08 0.0
5.45 0.08 0.0
5.5 0.08 0.0
5.55 0.08 0.0
5.6 0.08 0.0
5.65 0.08 0.0
5.7 0.08 0.0
5.75 0.08 0.0
5.8 0.08 0.0
5.85 0.08 0.0
5.9 0.08 0.0
5.95 0.08 0.0
6 0.08 0.0
6.05 0.08 0.0
6.1 0.08 0.0
6.15 0.08 0.0
6.2 0.08 0.0
6.25 0.08 0.0
6.3 0.08 0.0
6.35 0.08 0.0
6.4 0.08 0.0
6.45 0.08 0.0
6.5 0.08 0.0
6.55 0.08 0.0
6.6 0.08 0.0
6.65 0.08 0.0
6.7 0.08 0.0
6.75 0.08 0.0
6.8 0.08 0.0
6.85 0.08 0.0
6.9 0.08 0.0
6.95 0.08 0.0
7 0.08 0.0
7.05 0.08 0.0
7.1 0.08 0.0
7.15 0.08 0.0
7.2 0.08 0.0
7.25 0.08 0.0
7.3 0.08 0.0
7.35 0.08 0.0
7.4 0.08 0.0
7.45 0.08 0.0
7.5 0.08 0.0
7.55 0.08 0.0
7.6 0.08 0.0
7.65 0.08 0.0
7.7 0.08 0.0
7.75 0.08 0.0
7.8 0.08 0.0
7.85 0.08 0.0
7.9 0.08 0.0
7.95 0.08 0.0
8 0.08 0.0
8.05 0.08 0.0
8.1 0.08 0.0
8.15 0.08 0.0
8.2 0.08 0.0
8.25 0.08 0.0
8.3 0.08 0.0
8.35 0.08 0.0
8.4 0.08 0.0
8.45 0.08 0.0
8.5 0.08 0.0
8.55 0.08 0.0
8.6 0.08 0.0
8.65 0.08 0.0
8.7 0.08 0.0
8.75 0.08 0.0
8.8 0.08 0.0
8.85 0.08 0.0
8.9 0.08 0.0
8.95 0.08 0.0
9 0.08 0.0
9.05 0.08 0.0
9.1 0.08 0.0
9.15 0.08 0.0
9.2 0.08 0.0
9.25 0.08 0.0
9.3 0.08 0.0
9.35 0.08 0.0
9.4 0.08 0.0
9.45 0.08 0.0
9.5 0.08 0.0
9.55 0.08 0.0
9.6 0.08 0.0
9.65 0.08 0.0
9.7 0.08 0.0
9.75 0.08 0.0
9.8 0.08 0.0
9.85 0.08 0.0
9.9 0.08 0.0
9.95 0.08 0.0
10 0.08 0.0
0 0.12 0.0
0.05 0.12 0.0
0.1 0.12 0.0
0.15 0.12 0.0
0.2 0.12 0.0
0.25 0.12 0.0
0.3 0.12 0.0
0.35 0.12 0.0
0.4 0.12 0.0
0.45 0.12 0.0
0.5 0.12 0.0
0.55 0.12 0.0
0.6 0.12 0.0
0.65 0.12 0.0
0.7 0.12 0.0
0.75 0.12 0.0
0.8 0.12 0.0
0.85 0.12 0.0
0.9 0.12 0.0
0.95 0.12 0.0
1 0.12 0.0
1.05 0.12 0.0
1.1 0.12 0.0
1.15 0.12 0.0
1.2 0.12 0.0
1.25 0.12 0.0
1.3 0.12 0.0
1.35 0.12 0.0
1.4 0.12 0.0
1.45 0.12 0.0
1.5 0.12 0.0
1.55 0.12 0.0
1.6 0.12 0.0
1.65 0.12 0.0
1.7 0.12 0.0
1.75 0.12 0.0
1.8 0.12 0.0
1.85 0.12 0.0
1.9 0.12 0.0
1.95 0.12 0.0
2 0.12 0.0
2.05 0.12 0.0
2.1 0.12 0.0
2.15 0.12 0.0
2.2 0.12 0.0
2.25 0.12 0.0
2.3 0.12 0.0
2.35 0.12 0.0
2.4 0.12 0.0
2.45 0.12 0.0
2.5 0.12 0.0
2.55 0.12 0.0
2.6 0.12 0.0
2.65 0.12 0.0
2.7 0.12 0.0
2.75 0.12 0.0
2.8 0.12 0.0
2.85 0.12 0.0
2.9 0.12 0.0
2.95 0.12 0.0
3 0.12 0.0
3.05 0.12 0.0
3.1 0.12 0.0
3.15 0.12 0.0
3.2 0.12 0.0
3.25 0.12 0.0
3.3 0.12 0.0
3.35 0.12 0.0
3.4 0.12 0.0
3.45 0.12 0.0
3.5 0.12 0.0
3.55 0.12 0.0
3.6 0.12 0.0
3.65 0.12 0.0
3.7 0.12 0.0
3.75 0.12 0.0
3.8 0.12 0.0
3.85 0.12 0.0
3.9 0.12 0.0
3.95 0.12 0.0
4 0.12 0.0
4.05 0.12 0.0
4.1 0.12 0.0
4.15 0.12 0.0
4.2 0.12 0.0
4.25 0.12 0.0
4.3 0.12 0.0
4.35 0.12 0.0
4.4 0.12 0.0
4.45 0.12 0.0
4.5 0.12 0.0
4.55 0.12 0.0
4.6 0.12 0.0
4.65 0.12 0.0
4.7 0.12 0.0
4.75 0.12 0.0
4.8 0.12 0.0
4.85 0.12 0.0
4.9 0.12 0.0
4.95 0.12 0.0
5 0.12 0.0
5.05 0.12 0.0
5.1 0.12 0.0
5.15 0.12 0.0
5.2 0.12 0.0
5.25 0.12 0.0
5.3 0.12 0.0
5.35 0.12 0.0
5.4 0.12 0.0
5.45 0.12 0.0
5.5 0.12 0.0
5.55 0.12 0.0
5.6 0.12 0.0
5.65 0.12 0.0
5.7 0.12 0.0
5.75 0.12 0.0
5.8 0.12 0.0
5.85 0.12 0.0
5.9 0.12 0.0
5.95 0.12 0.0
6 0.12 0.0
6.05 0.12 0.0
6.1 0.12 0.0
6.15 0.12 0.0
6.2 0.12 0.0
6.25 0.12 0.0
6.3 0.12 0.0
6.35 0.12 0.0
6.4 0.12 0.0
6.45 0.12 0.0
6.5 0.12 0.0
6.55 0.12 0.0
6.6 0.12 0.0
6.65 0.12 0.0
6.7 0.12 0.0
6.75 0.12 0.0
6.8 0.12 0.0
6.85 0.12 0.0
6.9 0.12 0.0
6.95 0.12 0.0
7 0.12 0.0
7.05 0.12 0.0
7.1 0.12 0.0
7.15 0.12 0.0
7.2 0.12 0.0
7.25 0.12 0.0
7.3 0.12 0.0
7.35 0.12 0.0
7.4 0.12 0.0
7.45 0.12 0.0
7.5 0.12 0.0
7.55 0.12 0.0
7.6 0.12 0.0
7.65 0.12 0.0
7.7 0.12 0.0
7.75 0.12 0.0
7.8 0.12 0.0
7.85 0.12 0.0
7.9 0.12 0.0
7.95 0.12 0.0
8 0.12 0.0
8.05 0.12 0.0
8.1 0.12 0.0
8.15 0.12 0.0
8.2 0.12 0.0
8.25 0.12 0.0
8.3 0.12 0.0
8.35 0.12 0.0
8.4 0.12 0.0
8.45 0.12 0.0
[...]
<CellData>
<DataArray type="Float64" Name="Pressure" format="ascii">
0.127999
0.127999
0.124536
0.121954
0.119907
0.118206
0.116737
0.11543
0.114241
0.113139
0.112104
0.111123
0.110185
0.109283
0.108411
0.107564
0.106739
0.105934
0.105145
0.104372
0.103612
0.102864
0.102127
0.1014
0.100682
0.0999725
0.0992705
0.0985756
0.0978873
0.097205
0.0965284
0.095857
0.0951906
0.0945288
0.0938713
0.093218
0.0925684
0.0919225
0.09128
0.0906407
0.0900045
0.0893713
0.0887408
0.0881129
0.0874875
0.0868646
0.0862439
0.0856254
0.085009
0.0843945
0.083782
0.0831714
0.0825625
0.0819552
0.0813496
0.0807456
0.0801431
0.079542
0.0789424
0.0783441
0.0777471
0.0771513
0.0765568
0.0759634
0.0753712
0.0747801
0.0741901
0.0736011
0.0730131
0.0724261
0.0718401
0.0712549
0.0706707
0.0700873
0.0695048
0.0689231
0.0683422
0.0677621
0.0671828
0.0666042
0.0660263
0.0654492
0.0648727
0.0642969
0.0637217
0.0631473
0.0625734
0.0620001
0.0614275
0.0608554
0.0602839
0.059713
0.0591426
0.0585728
0.0580035
0.0574347
0.0568664
0.0562986
0.0557313
0.0551645
0.0545982
0.0540323
0.0534668
0.0529018
0.0523373
0.0517732
0.0512094
0.0506461
0.0500832
0.0495207
0.0489586
0.0483969
0.0478356
0.0472746
0.046714
0.0461537
0.0455939
0.0450343
0.0444751
0.0439163
0.0433577
0.0427995
0.0422416
0.0416841
0.0411268
0.0405699
0.0400133
0.0394569
0.0389009
0.0383452
0.0377897
0.0372345
0.0366796
0.036125
0.0355707
0.0350166
0.0344628
0.0339092
0.033356
0.0328029
0.0322501
0.0316976
0.0311453
0.0305933
0.0300415
0.0294899
0.0289386
0.0283875
0.0278366
0.027286
0.0267356
0.0261854
0.0256354
0.0250856
0.0245361
0.0239868
0.0234376
0.0228887
0.02234
0.0217915
0.0212432
0.0206951
0.0201472
0.0195995
0.0190519
0.0185046
0.0179575
0.0174105
0.0168638
0.0163172
0.0157708
0.0152246
0.0146786
0.0141327
0.0135871
0.0130416
0.0124963
0.0119511
0.0114062
0.0108614
0.0103168
0.00977233
0.00922806
0.00868397
0.00814004
0.00759628
0.00705268
0.00650925
0.00596598
0.00542288
0.00487993
0.00433714
0.0037945
0.00325199
0.00270963
0.00216739
0.00162525
0.0010832
0.000541231
0
0.127999
0.127999
0.124536
0.121954
0.119907
0.118206
0.116737
0.11543
0.114241
0.113139
0.112104
0.111123
0.110185
0.109283
0.108411
0.107564
0.106739
0.105934
0.105145
0.104372
0.103612
0.102864
0.102127
0.1014
0.100682
0.0999725
0.0992705
0.0985756
0.0978873
0.097205
0.0965284
0.095857
0.0951906
0.0945288
0.0938713
0.093218
0.0925684
0.0919225
0.09128
0.0906407
0.0900045
0.0893713
0.0887408
0.0881129
0.0874875
0.0868646
0.0862439
0.0856254
0.085009
0.0843945
0.083782
0.0831714
0.0825625
0.0819552
0.0813496
0.0807456
0.0801431
0.079542
0.0789424
0.0783441
0.0777471
0.0771513
0.0765568
0.0759634
0.0753712
0.0747801
0.0741901
0.0736011
0.0730131
0.0724261
0.0718401
0.0712549
0.0706707
0.0700873
0.0695048
0.0689231
0.0683422
0.0677621
0.0671828
0.0666042
0.0660263
0.0654492
0.0648727
0.0642969
0.0637217
0.0631473
0.0625734
0.0620001
0.0614275
0.0608554
0.0602839
0.059713
0.0591426
0.0585728
0.0580035
0.0574347
0.0568664
0.0562986
0.0557313
0.0551645
0.0545982
0.0540323
0.0534668
0.0529018
0.0523373
0.0517732
0.0512094
0.0506461
0.0500832
0.0495207
0.0489586
0.0483969
0.0478356
0.0472746
0.046714
0.0461537
0.0455939
0.0450343
0.0444751
0.0439163
0.0433577
0.0427995
0.0422416
0.0416841
0.0411268
0.0405699
0.0400133
0.0394569
0.0389009
0.0383452
0.0377897
0.0372345
0.0366796
0.036125
0.0355707
0.0350166
0.0344628
0.0339092
0.033356
0.0328029
0.0322501
0.0316976
0.0311453
0.0305933
0.0300415
0.0294899
0.0289386
0.0283875
0.0278366
0.027286
0.0267356
0.0261854
0.0256354
0.0250856
0.0245361
0.0239868
0.0234376
0.0228887
0.02234
0.0217915
0.0212432
0.0206951
0.0201472
0.0195995
0.0190519
0.0185046
0.0179575
0.0174105
0.0168638
0.0163172
0.0157708
0.0152246
0.0146786
0.0141327
0.0135871
0.0130416
0.0124963
0.0119511
0.0114062
0.0108614
0.0103168
0.00977233
0.00922806
0.00868397
0.00814004
0.00759628
0.00705268
0.00650925
0.00596598
0.00542288
0.00487993
0.00433714
0.0037945
0.00325199
0.00270963
0.00216739
0.00162525
0.0010832
0.000541231
0
0.127068
0.127068
0.124334
0.12199
0.120018
0.118332
0.116858
0.11554
0.114338
0.113225
0.112181
0.111191
0.110246
0.109338
0.10846
0.107609
0.106781
0.105972
0.105181
0.104405
0.103642
0.102892
0.102154
0.101425
0.100706
0.0999948
0.0992917
0.0985957
0.0979063
0.0972231
0.0965457
0.0958735
0.0952064
0.0945439
0.0938858
0.0932318
0.0925817
0.0919352
0.0912922
0.0906525
0.0900159
0.0893822
0.0887513
0.0881231
0.0874974
0.0868741
0.0862531
0.0856343
0.0850176
0.0844029
0.0837901
0.0831792
0.0825701
0.0819626
0.0813568
0.0807526
0.0801499
0.0795486
0.0789488
0.0783503
0.0777532
0.0771573
0.0765626
0.0759691
0.0753767
0.0747855
0.0741953
0.0736062
0.0730181
0.072431
0.0718448
0.0712596
0.0706753
0.0700918
0.0695092
0.0689274
0.0683464
0.0677662
0.0671868
0.0666081
0.0660302
0.065453
0.0648764
0.0643005
0.0637253
0.0631508
0.0625768
0.0620035
0.0614308
0.0608587
0.0602872
0.0597162
0.0591457
0.0585759
0.0580065
0.0574377
0.0568693
0.0563015
0.0557342
0.0551673
0.0546009
0.054035
0.0534695
0.0529045
0.0523399
0.0517757
0.0512119
0.0506486
0.0500857
0.0495231
0.048961
0.0483992
0.0478379
0.0472769
0.0467162
0.0461559
0.045596
0.0450365
0.0444772
0.0439183
0.0433598
0.0428016
0.0422436
0.0416861
0.0411288
0.0405718
0.0400152
0.0394588
0.0389028
0.038347
0.0377915
0.0372363
0.0366814
0.0361268
0.0355724
0.0350183
0.0344645
0.0339109
0.0333576
0.0328046
0.0322518
0.0316992
0.0311469
0.0305949
0.030043
0.0294915
0.0289401
0.028389
0.0278381
0.0272875
0.026737
0.0261868
0.0256368
0.0250871
0.0245375
0.0239881
0.023439
0.0228901
0.0223413
0.0217928
0.0212445
0.0206964
0.0201485
0.0196007
0.0190532
0.0185059
0.0179587
0.0174118
0.016865
0.0163184
0.015772
0.0152258
0.0146798
0.0141339
0.0135882
0.0130427
0.0124974
0.0119523
0.0114073
0.0108625
0.0103179
0.00977345
0.00922918
0.00868507
0.00814114
0.00759737
0.00705377
0.00651033
0.00596705
0.00542394
0.00488098
0.00433818
0.00379553
0.00325301
0.00271063
0.00216836
0.0016262
0.00108411
0.000542013
0
0.12593
0.12593
0.123877
0.121847
0.120011
0.118382
0.116928
0.115614
0.114409
0.113291
0.112241
0.111246
0.110296
0.109383
0.108502
0.107647
0.106816
0.106005
0.105211
0.104433
0.103669
0.102917
0.102177
0.101447
0.100726
0.100014
0.0993103
0.0986134
0.0979231
0.0972392
0.0965609
0.0958881
0.0952203
0.0945573
0.0938986
0.0932441
0.0925935
0.0919466
0.0913032
0.0906631
0.0900261
0.089392
0.0887608
0.0881322
0.0875062
0.0868826
0.0862614
0.0856423
0.0850254
0.0844104
0.0837974
0.0831863
0.082577
0.0819693
0.0813634
0.080759
0.0801561
0.0795547
0.0789547
0.078356
0.0777587
0.0771627
0.0765679
0.0759742
0.0753818
0.0747904
0.0742001
0.0736109
0.0730227
0.0724355
0.0718492
0.0712639
0.0706794
0.0700959
0.0695132
0.0689313
0.0683503
0.06777
0.0671905
0.0666118
0.0660337
0.0654564
0.0648798
0.0643039
0.0637286
0.063154
0.06258
0.0620066
0.0614339
0.0608617
0.0602901
0.0597191
0.0591486
0.0585787
0.0580093
0.0574404
0.056872
0.0563041
0.0557367
0.0551698
0.0546034
0.0540374
0.0534719
0.0529068
0.0523422
0.051778
0.0512142
0.0506509
0.0500879
0.0495253
0.0489632
0.0484014
0.04784
0.0472789
0.0467183
0.046158
0.045598
0.0450384
0.0444792
0.0439202
0.0433617
0.0428034
0.0422455
0.0416879
0.0411306
0.0405736
0.0400169
0.0394605
0.0389045
0.0383487
0.0377932
0.037238
0.036683
0.0361284
0.035574
0.0350199
0.034466
0.0339125
0.0333591
0.0328061
0.0322533
0.0317007
0.0311484
0.0305963
0.0300445
0.0294929
0.0289415
0.0283904
0.0278395
0.0272888
0.0267384
0.0261881
0.0256381
0.0250884
0.0245388
0.0239894
0.0234403
0.0228913
0.0223426
0.0217941
0.0212457
0.0206976
0.0201497
0.0196019
0.0190544
0.018507
0.0179599
0.0174129
0.0168661
0.0163195
0.0157731
0.0152269
0.0146809
0.014135
0.0135893
0.0130438
0.0124985
0.0119533
0.0114084
0.0108636
0.0103189
0.00977448
0.00923019
0.00868608
0.00814214
0.00759837
0.00705476
0.00651132
0.00596804
0.00542492
0.00488196
0.00433915
0.0037965
0.00325398
0.0027116
0.00216934
0.00162718
0.00108509
0.000542975
0
0.124921
0.124921
0.123348
0.121612
0.119933
0.118382
0.116964
0.115665
0.114465
0.113346
0.112293
0.111294
0.110341
0.109424
0.10854
0.107682
0.106848
0.106035
0.105239
0.104459
0.103693
0.10294
0.102199
0.101467
0.100746
0.100033
0.0993275
0.0986298
0.0979388
0.0972541
0.0965752
0.0959017
0.0952334
0.0945697
0.0939106
0.0932556
0.0926046
0.0919572
0.0913134
0.0906729
0.0900356
0.0894012
0.0887696
0.0881408
0.0875145
0.0868906
0.0862691
0.0856498
0.0850326
0.0844175
0.0838043
0.083193
0.0825834
0.0819756
0.0813695
0.0807649
0.0801618
0.0795603
0.0789601
0.0783614
0.0777639
0.0771677
0.0765728
0.075979
0.0753865
0.074795
0.0742046
0.0736153
0.073027
0.0724397
0.0718533
0.0712679
0.0706834
0.0700997
0.0695169
0.068935
0.0683539
0.0677735
0.067194
0.0666151
0.0660371
0.0654597
0.064883
0.064307
0.0637317
0.063157
0.062583
0.0620095
0.0614367
0.0608645
0.0602929
0.0597218
0.0591513
0.0585813
0.0580118
0.0574429
0.0568745
0.0563066
0.0557391
0.0551722
0.0546057
0.0540397
0.0534742
0.0529091
0.0523444
0.0517802
0.0512163
0.0506529
0.05009
0.0495274
0.0489652
0.0484033
0.0478419
0.0472809
0.0467202
0.0461598
0.0455999
0.0450402
0.044481
0.043922
0.0433634
0.0428051
0.0422472
0.0416896
0.0411322
0.0405752
0.0400185
0.0394622
0.0389061
0.0383502
0.0377947
0.0372395
0.0366845
0.0361299
0.0355755
0.0350213
0.0344675
0.0339139
0.0333605
0.0328075
0.0322546
0.0317021
0.0311497
0.0305976
0.0300458
0.0294942
0.0289428
0.0283917
0.0278408
0.0272901
0.0267396
0.0261894
0.0256394
0.0250896
0.02454
0.0239906
0.0234414
0.0228925
0.0223437
0.0217952
0.0212468
0.0206987
0.0201508
0.019603
0.0190555
0.0185081
0.0179609
0.017414
0.0168672
0.0163206
0.0157741
0.0152279
0.0146819
0.014136
0.0135903
0.0130448
0.0124995
0.0119543
0.0114093
0.0108645
0.0103199
0.00977541
0.00923112
0.00868701
0.00814306
0.00759928
0.00705567
0.00651222
0.00596894
0.00542582
0.00488287
0.00434007
0.00379742
0.00325493
0.00271257
0.00217035
0.00162825
0.00108623
0.000544249
0
0.124083
0.124083
0.12282
0.121329
0.119807
0.118345
0.116976
0.115701
0.114511
0.113396
0.112342
0.111342
0.110385
0.109466
0.108578
0.107718
0.106881
0.106065
0.105267
0.104485
0.103718
0.102963
0.10222
0.101488
0.100765
0.100051
0.0993449
0.0986462
0.0979544
0.0972689
0.0965894
0.0959153
0.0952463
0.0945821
0.0939224
0.093267
0.0926155
0.0919678
0.0913235
0.0906827
0.090045
0.0894102
0.0887784
0.0881492
0.0875227
0.0868985
0.0862767
0.0856572
0.0850398
0.0844244
0.083811
0.0831995
0.0825898
0.0819818
0.0813754
0.0807707
0.0801675
0.0795658
0.0789655
0.0783665
0.077769
0.0771727
0.0765776
0.0759837
0.075391
0.0747994
0.074209
0.0736195
0.0730311
0.0724437
0.0718572
0.0712717
0.0706871
0.0701034
0.0695206
0.0689385
0.0683573
0.0677769
0.0671973
0.0666184
0.0660402
0.0654628
0.0648861
0.06431
0.0637346
0.0631599
0.0625858
0.0620123
0.0614395
0.0608672
0.0602955
0.0597244
0.0591538
0.0585838
0.0580143
0.0574453
0.0568769
0.0563089
0.0557414
0.0551745
0.054608
0.0540419
0.0534763
0.0529112
0.0523465
0.0517822
0.0512184
0.0506549
0.0500919
0.0495293
0.0489671
0.0484052
0.0478438
0.0472827
0.046722
0.0461616
0.0456016
0.045042
0.0444827
0.0439237
0.0433651
0.0428068
0.0422488
0.0416912
0.0411338
0.0405768
0.0400201
0.0394637
0.0389075
0.0383517
0.0377962
0.0372409
0.036686
0.0361313
0.0355769
0.0350227
0.0344688
0.0339152
0.0333619
0.0328088
0.0322559
0.0317033
0.031151
0.0305989
0.030047
0.0294954
0.028944
0.0283929
0.0278419
0.0272912
0.0267408
0.0261905
0.0256405
0.0250907
0.0245411
0.0239917
0.0234425
0.0228936
0.0223448
0.0217962
0.0212479
0.0206997
0.0201518
0.019604
0.0190565
0.0185091
0.0179619
0.0174149
0.0168681
0.0163215
0.0157751
0.0152289
0.0146828
0.0141369
0.0135912
0.0130457
0.0125003
0.0119552
0.0114102
0.0108654
0.0103207
0.00977627
0.00923197
0.00868785
0.0081439
0.00760012
0.0070565
0.00651306
0.00596978
0.00542667
0.00488373
0.00434095
0.00379833
0.00325587
0.00271357
0.00217143
0.00162944
0.00108759
0.000545884
0
0.12338
0.12338
0.122315
0.121018
0.119641
0.118275
0.116963
0.115721
0.114548
0.113441
0.11239
0.111389
0.110431
0.109509
0.108619
0.107756
0.106917
0.106098
0.105298
0.104514
0.103745
0.102988
0.102244
0.10151
0.100786
0.100071
0.0993635
0.0986638
0.0979711
0.0972848
0.0966045
0.0959297
0.0952601
0.0945953
0.093935
0.093279
0.0926271
0.0919788
0.0913342
0.0906929
0.0900548
0.0894197
0.0887875
0.0881581
0.0875312
0.0869067
0.0862847
0.0856649
0.0850472
0.0844316
0.083818
0.0832062
0.0825963
0.0819881
0.0813816
0.0807766
0.0801733
0.0795714
0.0789709
0.0783719
0.0777741
0.0771777
0.0765825
0.0759885
0.0753957
0.074804
0.0742134
0.0736238
0.0730353
0.0724478
0.0718612
0.0712756
0.0706909
0.0701071
0.0695242
0.0689421
0.0683608
0.0677803
0.0672006
0.0666216
0.0660434
0.0654659
0.0648891
0.064313
0.0637376
0.0631628
0.0625886
0.0620151
0.0614422
0.0608698
0.0602981
0.0597269
0.0591563
0.0585862
0.0580167
0.0574477
0.0568792
0.0563112
0.0557437
0.0551767
0.0546101
0.0540441
0.0534784
0.0529133
0.0523485
0.0517842
0.0512203
0.0506569
0.0500938
0.0495312
0.0489689
0.048407
0.0478456
0.0472844
0.0467237
0.0461633
0.0456033
0.0450436
0.0444843
0.0439253
0.0433667
0.0428084
0.0422504
0.0416927
0.0411353
0.0405783
0.0400216
0.0394651
0.038909
0.0383531
0.0377976
0.0372423
0.0366873
0.0361326
0.0355782
0.035024
0.0344701
0.0339165
0.0333631
0.03281
0.0322572
0.0317046
0.0311522
0.0306001
0.0300482
0.0294966
0.0289452
0.028394
0.0278431
0.0272924
0.0267419
0.0261916
0.0256416
0.0250918
0.0245421
0.0239927
0.0234436
0.0228946
0.0223458
0.0217973
0.0212489
0.0207007
0.0201528
0.019605
0.0190574
0.01851
0.0179629
0.0174159
0.016869
0.0163224
0.015776
0.0152297
0.0146837
0.0141378
0.0135921
0.0130465
0.0125012
0.011956
0.011411
0.0108662
0.0103215
0.00977706
0.00923276
0.00868863
0.00814468
0.00760089
0.00705728
0.00651384
0.00597057
0.00542747
0.00488454
0.00434179
0.00379922
0.00325682
0.00271461
0.00217259
0.00163077
0.00108917
0.000547864
0
0.12277
0.12277
0.121837
0.12069
0.119442
0.118171
0.116923
0.115721
0.114572
0.113478
0.112434
0.111436
0.110478
0.109555
0.108662
0.107797
0.106955
0.106134
0.105332
0.104546
0.103775
0.103016
0.10227
0.101535
0.100809
0.100093
0.0993844
0.0986836
0.0979899
0.0973026
0.0966214
0.0959458
0.0952754
0.09461
0.093949
0.0932924
0.0926399
0.0919911
0.091346
0.0907042
0.0900657
0.0894302
0.0887976
0.0881677
0.0875405
0.0869157
0.0862934
0.0856732
0.0850553
0.0844394
0.0838255
0.0832135
0.0826034
0.0819949
0.0813882
0.0807831
0.0801795
0.0795774
0.0789768
0.0783775
0.0777796
0.077183
0.0765877
0.0759936
0.0754006
0.0748088
0.074218
0.0736284
0.0730397
0.0724521
0.0718654
0.0712797
0.0706949
0.070111
0.069528
0.0689458
0.0683644
0.0677838
0.0672041
0.066625
0.0660467
0.0654691
0.0648923
0.0643161
0.0637406
0.0631657
0.0625915
0.0620179
0.0614449
0.0608726
0.0603008
0.0597295
0.0591589
0.0585887
0.0580192
0.0574501
0.0568816
0.0563135
0.055746
0.0551789
0.0546123
0.0540462
0.0534806
0.0529154
0.0523506
0.0517862
0.0512223
0.0506588
0.0500958
0.0495331
0.0489708
0.0484089
0.0478474
0.0472862
0.0467255
0.0461651
0.045605
0.0450453
0.044486
0.043927
0.0433683
0.0428099
0.0422519
0.0416942
0.0411369
0.0405798
0.040023
0.0394666
0.0389104
0.0383546
0.037799
0.0372437
0.0366887
0.036134
0.0355795
0.0350253
0.0344714
0.0339178
0.0333644
0.0328113
0.0322584
0.0317058
0.0311534
0.0306013
0.0300494
0.0294977
0.0289463
0.0283951
0.0278442
0.0272935
0.026743
0.0261927
0.0256426
0.0250928
0.0245432
0.0239938
0.0234446
0.0228956
0.0223468
0.0217982
0.0212499
0.0207017
0.0201537
0.0196059
0.0190583
0.0185109
0.0179637
0.0174167
0.0168699
0.0163233
0.0157768
0.0152306
0.0146845
0.0141386
0.0135929
0.0130473
0.012502
0.0119568
0.0114118
0.0108669
0.0103223
0.00977781
0.0092335
0.00868936
0.0081454
0.00760162
0.007058
0.00651457
0.00597131
0.00542823
0.00488533
0.00434262
0.0038001
0.00325779
0.00271569
0.00217383
0.00163224
0.00109096
0.000550116
0
0.122228
0.122228
0.121386
0.120356
0.119217
0.118035
0.116853
0.115697
0.114579
0.113503
0.112471
0.111478
0.110523
0.1096
0.108707
0.10784
0.106997
0.106174
0.105369
0.104581
0.103808
0.103048
0.1023
0.101563
0.100836
0.100118
0.0994081
0.0987061
0.0980112
0.0973229
0.0966407
0.0959642
0.095293
0.0946267
0.093965
0.0933077
0.0926545
0.0920051
0.0913594
0.0907171
0.090078
0.089442
0.088809
0.0881787
0.087551
0.0869259
0.0863031
0.0856827
0.0850644
0.0844482
0.083834
0.0832217
0.0826113
0.0820026
0.0813956
0.0807902
0.0801864
0.0795841
0.0789833
0.0783839
0.0777858
0.077189
0.0765935
0.0759992
0.075406
0.074814
0.0742232
0.0736334
0.0730446
0.0724568
0.07187
0.0712842
0.0706993
0.0701153
0.0695321
0.0689498
0.0683683
0.0677877
0.0672078
0.0666287
0.0660503
0.0654726
0.0648957
0.0643194
0.0637438
0.0631689
0.0625946
0.062021
0.0614479
0.0608755
0.0603036
0.0597323
0.0591616
0.0585914
0.0580218
0.0574527
0.0568841
0.056316
0.0557484
0.0551813
0.0546147
0.0540485
0.0534828
0.0529176
0.0523527
0.0517884
0.0512244
0.0506609
0.0500978
0.049535
0.0489727
0.0484108
0.0478492
0.0472881
0.0467273
0.0461668
0.0456068
0.045047
0.0444877
0.0439286
0.0433699
0.0428116
0.0422535
0.0416958
0.0411384
0.0405813
0.0400245
0.0394681
0.0389119
0.038356
0.0378004
0.0372451
0.0366901
0.0361353
0.0355809
0.0350267
0.0344727
0.0339191
0.0333657
0.0328125
0.0322596
0.031707
0.0311546
0.0306025
0.0300506
0.0294989
0.0289475
0.0283963
0.0278453
0.0272946
0.0267441
0.0261938
0.0256437
0.0250938
0.0245442
0.0239948
0.0234456
0.0228966
0.0223478
0.0217992
0.0212508
0.0207026
0.0201546
0.0196068
0.0190592
0.0185118
0.0179646
0.0174176
0.0168708
0.0163241
0.0157777
0.0152314
0.0146853
0.0141394
0.0135937
0.0130481
0.0125027
0.0119575
0.0114125
0.0108677
0.010323
0.00977851
0.0092342
0.00869005
0.00814609
0.0076023
0.00705869
0.00651526
0.00597201
0.00542896
0.00488609
0.00434343
0.00380098
0.00325876
0.0027168
0.00217513
0.0016338
0.00109287
0.000552531
0
0.121739
0.121739
0.120961
0.120021
0.118975
0.117874
0.116756
0.115648
0.114564
0.113512
0.112495
0.111512
0.110562
0.109643
0.108751
0.107884
0.10704
0.106215
0.105409
0.104619
0.103844
0.103083
0.102333
0.101594
0.100865
0.100146
0.0994349
0.0987316
0.0980354
0.097346
0.0966627
0.0959851
0.0953129
0.0946457
0.0939832
0.0933251
0.0926712
0.0920211
0.0913747
0.0907318
0.0900921
0.0894556
0.088822
0.0881912
0.0875631
0.0869375
0.0863143
0.0856934
0.0850748
0.0844582
0.0838437
0.083231
0.0826203
0.0820113
0.081404
0.0807984
0.0801943
0.0795917
0.0789907
0.078391
0.0777927
0.0771957
0.0766
0.0760055
0.0754121
0.07482
0.0742289
0.0736389
0.07305
0.0724621
0.0718752
0.0712892
0.0707041
0.07012
0.0695367
0.0689543
0.0683727
0.0677919
0.0672119
0.0666327
0.0660542
0.0654765
0.0648994
0.0643231
0.0637474
0.0631724
0.062598
0.0620243
0.0614512
0.0608786
0.0603067
0.0597354
0.0591646
0.0585943
0.0580246
0.0574555
0.0568868
0.0563187
0.055751
0.0551839
0.0546172
0.054051
0.0534852
0.0529199
0.0523551
0.0517907
0.0512267
0.0506631
0.0500999
0.0495372
0.0489748
0.0484128
0.0478513
0.0472901
0.0467292
0.0461687
0.0456086
0.0450489
0.0444895
0.0439304
0.0433717
0.0428133
0.0422552
0.0416975
0.0411401
0.0405829
0.0400261
0.0394696
0.0389134
0.0383575
0.0378019
0.0372466
0.0366915
0.0361368
0.0355823
0.0350281
0.0344741
0.0339204
0.033367
0.0328138
0.0322609
0.0317083
0.0311559
0.0306037
0.0300518
0.0295001
0.0289487
0.0283974
0.0278465
0.0272957
0.0267452
0.0261949
0.0256448
0.0250949
0.0245453
0.0239958
0.0234466
0.0228976
0.0223488
0.0218002
0.0212518
0.0207036
0.0201556
0.0196078
0.0190602
0.0185127
0.0179655
0.0174185
0.0168716
0.016325
0.0157785
0.0152322
0.0146861
0.0141402
0.0135944
0.0130489
0.0125035
0.0119583
0.0114132
0.0108684
0.0103237
0.0097792
0.00923487
0.00869072
0.00814675
0.00760296
0.00705935
0.00651592
0.00597269
0.00542966
0.00488683
0.00434422
0.00380184
0.00325973
0.00271791
0.00217644
0.00163538
0.00109481
0.000554973
0
0.121291
0.121291
0.120561
0.119691
0.118722
0.117692
0.116635
0.115576
0.114528
0.113503
0.112505
0.111535
0.110594
0.10968
0.108791
0.107926
0.107082
0.106257
0.10545
0.104659
0.103883
0.103119
0.102368
0.101628
0.100898
0.100177
0.0994643
0.0987597
0.0980623
0.0973717
0.0966872
0.0960086